61
 energy: -114.510921122564 gnorm: 0.124289340297 xtb: 6.6.1 (8d0f1dd)
C          -10.26467700000000       -1.77409900000000       -3.23848900000000
C           -8.79860500000000       -1.75853600000000       -2.94852000000000
C           -8.24069600000000       -1.03369900000000       -1.96743800000000
C           -6.81758100000000       -1.03290400000000       -1.70319400000000
C           -6.26629100000000       -0.31479500000000       -0.71007300000000
C           -4.85799800000000       -0.23574200000000       -0.35147700000000
C           -4.46768500000000        0.42758800000000        0.75109200000000
C           -3.04698700000000        0.50976500000000        1.10742800000000
C           -2.63532100000000        1.20668000000000        2.25155400000000
C           -1.28045900000000        1.25379300000000        2.55115300000000
C           -0.33254900000000        0.62859900000000        1.73375800000000
C            1.05591600000000        0.85140800000000        2.26024200000000
C            1.92390400000000       -0.39631300000000        2.27425900000000
C            3.07563700000000       -0.17230400000000        1.40303400000000
C            4.10136300000000       -1.04438400000000        1.09285100000000
O            4.11085700000000       -2.29308200000000        1.64113800000000
C            5.11924700000000       -0.59977200000000        0.22187600000000
C            6.24035300000000       -1.49864800000000       -0.14374400000000
C            7.33895700000000       -0.95353800000000       -0.95424500000000
C            7.33300600000000        0.27844600000000       -1.47235500000000
O            8.33926400000000        0.82338500000000       -2.24855200000000
C            9.47708600000000        0.02705400000000       -2.55087100000000
C            6.15312800000000        1.16969900000000       -1.23837100000000
O            6.08920300000000        2.24574600000000       -1.82194500000000
O            6.31470100000000       -2.67176300000000        0.19568700000000
C            5.08236600000000        0.71530900000000       -0.30634000000000
C            4.02572600000000        1.58332700000000        0.05009700000000
O            3.96125900000000        2.87045100000000       -0.39672700000000
C            3.03900000000000        1.11019200000000        0.89526300000000
C            1.86213100000000        1.81220100000000        1.40326800000000
O            1.64375200000000        2.98384000000000        1.14701900000000
O            1.77319100000000       -1.43760600000000        2.89035700000000
C            0.79318800000000        1.38901500000000        3.67796200000000
C           -0.62045300000000        1.99547400000000        3.67156700000000
C           -0.72197800000000       -0.04107400000000        0.58742200000000
O            0.25616300000000       -0.58679200000000       -0.19613800000000
C           -2.08716400000000       -0.10811000000000        0.28027300000000
C           -2.56111200000000       -0.81683400000000       -0.92848300000000
N           -3.91651500000000       -0.83009500000000       -1.15741500000000
O           -1.75722100000000       -1.36070100000000       -1.68196500000000
H          -10.44468500000000       -1.44367800000000       -4.26611600000000
H          -10.65479300000000       -2.79085300000000       -3.13018900000000
H          -10.82750100000000       -1.11889800000000       -2.56613900000000
H           -8.18194900000000       -2.38376900000000       -3.59047700000000
H           -8.87172100000000       -0.41399000000000       -1.33308600000000
H           -6.21253900000000       -1.65773500000000       -2.35291400000000
H           -6.93108100000000        0.27898200000000       -0.08200500000000
H           -5.18104500000000        0.91449000000000        1.40840800000000
H           -3.35353200000000        1.71042600000000        2.89255200000000
H            3.30844100000000       -2.43857100000000        2.18864200000000
H            8.15382900000000       -1.65052200000000       -1.10654300000000
H           10.14982800000000        0.62291500000000       -3.17454100000000
H           10.01659600000000       -0.24642200000000       -1.63813400000000
H            9.19122800000000       -0.86365400000000       -3.11932200000000
H            3.14554200000000        3.31393200000000       -0.07816000000000
H            1.53483900000000        2.12764700000000        4.00302000000000
H            0.82176300000000        0.57177700000000        4.41181100000000
H           -0.58642800000000        3.06564500000000        3.44226500000000
H           -1.12499500000000        1.83662600000000        4.62885900000000
H           -0.18952800000000       -1.04080100000000       -0.95132900000000
H           -4.19837600000000       -1.31472800000000       -1.99796500000000
61
 energy: -114.522928729264 gnorm: 0.061460043091 xtb: 6.6.1 (8d0f1dd)
C          -10.25795360531094       -1.77254568006574       -3.23550130898782
C           -8.79747193953370       -1.75428730421553       -2.94309261965313
C           -8.22994429343642       -1.03574384061106       -1.96734547210808
C           -6.81242045926405       -1.03185351438743       -1.70346034946343
C           -6.25378734896853       -0.31510904788136       -0.71058020996282
C           -4.84882482017547       -0.23331754436222       -0.35179916921303
C           -4.44668739960222        0.43266568150649        0.76055324468049
C           -3.05213123332612        0.51536616251663        1.11142035235776
C           -2.63252768951227        1.21341074049463        2.24979132592884
C           -1.28697849672258        1.26718582428055        2.54470343502002
C           -0.33834022853351        0.63868250504533        1.73386595064286
C            1.06233631604420        0.85180321362354        2.26325911336459
C            1.91292536438199       -0.40981562304584        2.26144991468097
C            3.07383935464884       -0.17835578092502        1.39598800780038
C            4.10954690077691       -1.05660541502929        1.08824323054306
O            4.12884536628376       -2.28945150031807        1.61936296586313
C            5.12742679722020       -0.59886484129798        0.21820962577919
C            6.24247043354608       -1.50749999817096       -0.13868705771688
C            7.33352645565651       -0.96198266066597       -0.94272464432654
C            7.32498418160186        0.27880821649344       -1.46095811414179
O            8.30474573158184        0.82139049369083       -2.22934014852844
C            9.44738806792108        0.03193460929887       -2.53633466331128
C            6.15490536809059        1.18327028092438       -1.23957180364914
O            6.08664264636587        2.25312382582936       -1.82015516946979
O            6.29230276277083       -2.67935619314193        0.21233284521140
C            5.09415471687270        0.71320758792773       -0.30925398591318
C            4.03662972844967        1.59164826940925        0.03669189492207
O            3.98206613790735        2.85471498350029       -0.41411446078953
C            3.03922688158973        1.11250326561635        0.88565745971407
C            1.85410434167141        1.81638789141537        1.38790731376470
O            1.60938463076462        2.98437104352280        1.14498611776522
O            1.73351762707975       -1.43898463732122        2.88754405214070
C            0.80105185522475        1.39503663816265        3.68619244514404
C           -0.61761496591127        1.98839858500001        3.67034148079480
C           -0.72319290367215       -0.03683348998204        0.58556510473692
O            0.24421739797107       -0.59300388079842       -0.19041227328896
C           -2.09735177806019       -0.10583479878207        0.27735756587989
C           -2.55628108946599       -0.81423412044863       -0.92200224917850
N           -3.90122981531516       -0.82958821859124       -1.15143019106196
O           -1.76712105064853       -1.37225086143137       -1.69789066990081
H          -10.43900500460890       -1.45079758896136       -4.26172724458734
H          -10.64721921095853       -2.78644927438914       -3.13567687721031
H          -10.81039184016280       -1.11889090660092       -2.56213703339670
H           -8.18636466023946       -2.37798136739477       -3.58458645712080
H           -8.85155975549010       -0.41674175168964       -1.33216667755266
H           -6.21456844660891       -1.65646948457781       -2.35486886789296
H           -6.90896787076813        0.27346530093197       -0.07940573493740
H           -5.15845035966539        0.91373699628557        1.41133411169617
H           -3.34944519633961        1.70615797394816        2.88872445640760
H            3.33323942406713       -2.42980150733802        2.18017135303284
H            8.14358412188642       -1.65800622713340       -1.10444001301719
H           10.09557043153949        0.65286601593315       -3.15747847943381
H            9.99000273041864       -0.24731045397430       -1.62966955783854
H            9.16973449837398       -0.86218019968866       -3.10000590796871
H            3.17309649526710        3.30342869161082       -0.07995283312704
H            1.55341249408192        2.12547523859243        3.98964040864152
H            0.83958817116472        0.55760870393793        4.38966804263784
H           -0.59016493771503        3.05639699490953        3.44556232088628
H           -1.12696286195363        1.84227016076414        4.62178187300814
H           -0.20279991575915       -1.04010877289903       -0.94978770505018
H           -4.18870925349226       -1.31505940905177       -1.99215306324681
61
 energy: -114.527048452343 gnorm: 0.013171805478 xtb: 6.6.1 (8d0f1dd)
C          -10.24626487586828       -1.76902250399589       -3.22887667935463
C           -8.78904846956414       -1.75045001824569       -2.93777895820760
C           -8.21287102219471       -1.03616453232500       -1.96480315017485
C           -6.79987252944216       -1.03117129153791       -1.70295856695107
C           -6.23777130265327       -0.31654395093769       -0.70840538205522
C           -4.83944736313363       -0.23311369766129       -0.35149318138676
C           -4.42649335171814        0.43678519782332        0.76653160080686
C           -3.05336593935828        0.52217701508861        1.11056585034286
C           -2.62529848410912        1.21853571776294        2.24958155493055
C           -1.28624752532079        1.27592913882614        2.54081593246989
C           -0.33995330965489        0.64698648199184        1.72748837610628
C            1.06742403864670        0.85165419072845        2.25668471796896
C            1.90631205596356       -0.41718879891929        2.24813488135051
C            3.06741670663699       -0.18325591032379        1.38298192120274
C            4.10870268429977       -1.06908802969990        1.08187533688622
O            4.14027590378184       -2.28626665170699        1.59914993791031
C            5.12724407735379       -0.59827158899652        0.21504569453178
C            6.23994097373041       -1.51577212903484       -0.13332568027016
C            7.32199116936902       -0.97350724421164       -0.93087353514954
C            7.31163298461079        0.27366907544752       -1.44805538884829
O            8.26540104104661        0.81589222251231       -2.20417113203099
C            9.41696718591062        0.04215560466550       -2.52178852464437
C            6.14868059747147        1.18870931468566       -1.23641468732640
O            6.08673250463829        2.25678345152872       -1.81217274504558
O            6.26684921983386       -2.68633839461574        0.23171710668177
C            5.09521369917027        0.70842507520371       -0.30981157538465
C            4.03841300620380        1.59848091701839        0.02346195069348
O            3.99953081143368        2.83961501002550       -0.43041183539598
C            3.03508400428576        1.11183033681707        0.87299329199529
C            1.85084394272246        1.82015205817896        1.37340890692782
O            1.57528420399483        2.98077492298953        1.13369595928361
O            1.69134164745168       -1.43893777198899        2.87352274903870
C            0.80469669712690        1.39388482553431        3.68599893086222
C           -0.61106898701332        1.98550859539110        3.67042567702416
C           -0.71829950682094       -0.03503861951957        0.58153694277152
O            0.23281638035064       -0.60435468587033       -0.19006455530521
C           -2.09945447771942       -0.10350549209886        0.27303614472550
C           -2.54698586890399       -0.80865257759439       -0.91181424466166
N           -3.88490592377433       -0.82893617968872       -1.14277275872230
O           -1.77463189672445       -1.38064445429722       -1.70826310481455
H          -10.42664117614422       -1.45297445977827       -4.25531146972465
H          -10.63332975524193       -2.78270280328942       -3.13516334495979
H          -10.79355381479836       -1.11680990612155       -2.55504439543042
H           -8.18026461251689       -2.37357390796548       -3.57955033829745
H           -8.82749559089163       -0.41726360790725       -1.32607293219154
H           -6.20508516049155       -1.65308476314765       -2.35813931778738
H           -6.88605664583547        0.26904525280685       -0.07369843517915
H           -5.14450219171845        0.91301619030105        1.40931223945713
H           -3.34562760839288        1.70407063056369        2.88511709793448
H            3.35505348629701       -2.43142418726268        2.17233173998065
H            8.13230426973445       -1.66449717904938       -1.10165399812299
H           10.03986128536065        0.68781854428202       -3.13952020205280
H            9.95937215158970       -0.24113142306648       -1.61805444928387
H            9.14294280007653       -0.85365481960120       -3.08210543035644
H            3.20168554879694        3.30284868044539       -0.08853837544663
H            1.55936915788125        2.12235285128865        3.97409140823700
H            0.84892817576523        0.54647952899722        4.37203495688304
H           -0.58267318981416        3.05391785584546        3.44967132986983
H           -1.12316613936233        1.84653957759816        4.61947563732223
H           -0.21968520718741       -1.04461343615335       -0.95168229052050
H           -4.17825148516634       -1.31608324773507       -1.98230220911225
61
 energy: -114.527638919474 gnorm: 0.007915672343 xtb: 6.6.1 (8d0f1dd)
C          -10.23461251598014       -1.76692189918484       -3.22379073674181
C           -8.77739518719086       -1.74941982371002       -2.93553910766934
C           -8.19989701441114       -1.03600599348858       -1.96237149132860
C           -6.78777859422812       -1.03088445215143       -1.70336219840188
C           -6.22858590592125       -0.31769849373572       -0.70634299621147
C           -4.83378739565543       -0.23346619238516       -0.35123993315579
C           -4.42085589555005        0.43998251209101        0.76618853015045
C           -3.04922482662810        0.52671163857365        1.10935132236760
C           -2.62068061826173        1.22410785786391        2.24945277405996
C           -1.28224342132352        1.28102300551211        2.53997965363277
C           -0.33848173203136        0.65080056157783        1.72390741295696
C            1.06678347668231        0.85303609983849        2.25141150955630
C            1.89678623346050       -0.42045656246821        2.23642450405963
C            3.05818638126973       -0.18607089280170        1.37526500181148
C            4.09939914278800       -1.07432645613861        1.07991082375947
O            4.13455350267899       -2.29092495035442        1.59437621235206
C            5.11845256448044       -0.60154688305524        0.21478378966670
C            6.23256419798714       -1.52123960702934       -0.12985803982003
C            7.31195015727787       -0.98070616764837       -0.92551585290583
C            7.30042949612206        0.26824036397233       -1.44107560354153
O            8.24737318127475        0.81665477635384       -2.19404624021507
C            9.40324773956799        0.05214145154985       -2.51645777901632
C            6.13978668158822        1.18546073164104       -1.22826380622044
O            6.08595071726340        2.25591740639769       -1.80180278289403
O            6.25520146121675       -2.69063448399697        0.24110500857682
C            5.08563071831421        0.70342505250889       -0.30830307880983
C            4.03112643593488        1.59814852905763        0.01989951420063
O            4.00252350009850        2.83670300428124       -0.43773930002493
C            3.02707397733026        1.10946855580836        0.86626376283481
C            1.84498886113197        1.81946842438962        1.36283081594619
O            1.56063041223672        2.97688707520522        1.11931112402767
O            1.66892480400029       -1.44204930786344        2.85726968822761
C            0.81056233570752        1.39268943588691        3.68284167316250
C           -0.60356048577083        1.98696579492093        3.67011870876029
C           -0.71319279068889       -0.03399657196404        0.58079351907083
O            0.23081119500907       -0.61148767873975       -0.19033793936660
C           -2.09461759685522       -0.10085256312561        0.27234272690814
C           -2.53972815673338       -0.80721224683303       -0.90730062235179
N           -3.87826975814953       -0.82975755305605       -1.13924902709552
O           -1.77144006394308       -1.38262593842055       -1.70704239294066
H          -10.41551488560916       -1.44974772931577       -4.25014692900781
H          -10.62110674019788       -2.78121594832269       -3.13028754559171
H          -10.78064796667664       -1.11492560432805       -2.54827429700235
H           -8.16795621468459       -2.37150172339806       -3.57848369802490
H           -8.81288202061706       -0.41751718221522       -1.32067051234352
H           -6.19078956194929       -1.64933397160393       -2.36056958534625
H           -6.87741294124571        0.26495460260674       -0.06864787498250
H           -5.14398935650599        0.91567141183063        1.40551002968852
H           -3.34460771843316        1.70688445991295        2.88432785687003
H            3.35359386331167       -2.44458513198006        2.16896519784313
H            8.12484195566703       -1.66818586965822       -1.09984865520611
H           10.01681530179565        0.70635300829091       -3.13203599721745
H            9.94506494935831       -0.23019224794081       -1.61220629153121
H            9.12964202092629       -0.84330648429534       -3.07738974243344
H            3.21058866375256        3.31182473142703       -0.10150938411722
H            1.56803668872691        2.11929055406256        3.96874862680038
H            0.85611372255680        0.54280485702856        4.36530664265847
H           -0.57244461695195        3.05610539581964        3.45106959007592
H           -1.11638857518385        1.84718231121146        4.61909392465906
H           -0.22689910385069       -1.05081882689624       -0.95075294142064
H           -4.17264367828812       -1.31928817151556       -1.97679256174838
61
 energy: -114.527966802929 gnorm: 0.004474526671 xtb: 6.6.1 (8d0f1dd)
C          -10.21812294113904       -1.76565398313149       -3.21838258782604
C           -8.76040114993156       -1.74880780432315       -2.93463254556345
C           -8.18306970050087       -1.03652403924098       -1.96038304782485
C           -6.77157210104999       -1.03043819147736       -1.70431814383998
C           -6.21761962633659       -0.31947701639550       -0.70299214930892
C           -4.82547501109383       -0.23301806729868       -0.35024573152633
C           -4.41497528772561        0.44597598777578        0.76484623096511
C           -3.04324880674747        0.53377894255661        1.10892174740850
C           -2.61668102362757        1.23331393937882        2.24990829034586
C           -1.27851528976420        1.28873366515903        2.54101912760812
C           -0.33752126346623        0.65566838340038        1.72306499399588
C            1.06428052560876        0.85459415731936        2.24807690160105
C            1.88507556946018       -0.42336553857740        2.22577453376935
C            3.04495974253712       -0.19070354648427        1.36611784697714
C            4.08343736059978       -1.08141210054472        1.07472706186628
O            4.11899395829532       -2.29946291944854        1.58775764380248
C            5.10478334950287       -0.60836181835577        0.21266491923290
C            6.22222317922022       -1.52855918409421       -0.12810003210764
C            7.30031664698716       -0.98895129253674       -0.92215537779347
C            7.28734140606536        0.26162724864908       -1.43442869270030
O            8.22982429307590        0.81954635752521       -2.18473073919813
C            9.39056054481278        0.06549264482253       -2.51203504422015
C            6.12735377985193        1.17850818302923       -1.21978263770799
O            6.08601811255657        2.25407979368255       -1.78744092245389
O            6.24403455394248       -2.69612934572364        0.24873228990599
C            5.07121402122931        0.69612835919005       -0.30798834608297
C            4.01878114021194        1.59439106390343        0.01598768959627
O            4.00034805335881        2.83242790242513       -0.44590236515098
C            3.01540040969688        1.10551026316250        0.85907859164342
C            1.83756818621002        1.81774541962707        1.35455090134702
O            1.54436582577875        2.97093923317914        1.10193479249919
O            1.64288404283313       -1.44792889100749        2.83617116013434
C            0.81679554070704        1.39192559071225        3.67984286586385
C           -0.59518677727748        1.99135467533105        3.67083758326866
C           -0.70773172272822       -0.03252795215808        0.58323705275708
O            0.23074276623404       -0.61879938812492       -0.18682669927820
C           -2.08839990369095       -0.09665931663080        0.27384188307430
C           -2.53059924474755       -0.80630328142250       -0.90206242898989
N           -3.87056564681399       -0.83135820973140       -1.13525053005033
O           -1.76372526739744       -1.38468960487875       -1.70095754617225
H          -10.40156116423976       -1.44534736794519       -4.24367182390076
H          -10.60450047456499       -2.78029704420621       -3.12435969102188
H          -10.76177574778479       -1.11422721990273       -2.53950214595163
H           -8.14966311773998       -2.36849070417471       -3.57938915419237
H           -8.79489119446360       -0.42002007385212       -1.31479334605495
H           -6.17048416266967       -1.64246309747874       -2.36436899410602
H           -6.86908219305497        0.25829518359580       -0.06235703137050
H           -5.14262659711167        0.92263390966396        1.39989452767964
H           -3.34446974642916        1.71513771163911        2.88234560147010
H            3.34070437790808       -2.46333663256179        2.16040403584960
H            8.11656436047280       -1.67230140640972       -1.09974246535989
H            9.99606651331519        0.72746406416549       -3.12485503049311
H            9.93295266759860       -0.21533854601343       -1.60764214344227
H            9.11953665671196       -0.82916716677859       -3.07545640468614
H            3.21401114478363        3.32048785369841       -0.11978020080573
H            1.57829933079610        2.11564128072518        3.96446859115202
H            0.86262515256422        0.54119956071562        4.36126084487259
H           -0.55931854810940        3.06098816919650        3.45342666665864
H           -1.10764975410122        1.85023520284772        4.62028706390084
H           -0.23369266631457       -1.05837533089434       -0.94538530640474
H           -4.16493808230439       -1.32532866527298       -1.96966713366149
