35
 energy: -58.110592212381 gnorm: 0.067865619604 xtb: 6.6.1 (8d0f1dd)
O           -0.47804500000000        4.56504300000000        1.74653000000000
C           -0.69327600000000        3.36787300000000        1.08361100000000
C            0.21910700000000        2.38422800000000        1.11922400000000
C            0.05203800000000        1.06369800000000        0.43180600000000
N            0.84753700000000        0.06001300000000        0.42685100000000
C            2.10519200000000        0.11867900000000        1.15870700000000
C            2.81240200000000       -1.22516200000000        1.01017500000000
C            3.28552500000000       -1.47715900000000       -0.41545800000000
O            3.92886200000000       -2.74542300000000       -0.48380100000000
C           -1.19775400000000        0.93154300000000       -0.31600000000000
C           -2.13259700000000        1.95074600000000       -0.34258500000000
N           -3.19645300000000        1.55807200000000       -1.10359900000000
C           -2.96349900000000        0.29502000000000       -1.57777000000000
C           -1.72893300000000       -0.13412900000000       -1.11672700000000
C           -1.09433100000000       -1.45639900000000       -1.42438600000000
C           -1.25260200000000       -2.47106200000000       -0.29593800000000
O           -0.63578400000000       -3.70338200000000       -0.66311500000000
C           -1.97923900000000        3.20667600000000        0.32679300000000
O           -2.79705400000000        4.12274400000000        0.32097700000000
H           -1.27618700000000        5.10791700000000        1.56857700000000
H            1.13509000000000        2.53564400000000        1.67577100000000
H            1.91678800000000        0.29505500000000        2.22415100000000
H            2.74707300000000        0.92103800000000        0.77695700000000
H            2.15137500000000       -2.04195600000000        1.32684900000000
H            3.67770300000000       -1.25976400000000        1.68351900000000
H            2.45917200000000       -1.47145100000000       -1.13266200000000
H            4.01002000000000       -0.71640700000000       -0.72238400000000
H            3.22783700000000       -3.41576100000000       -0.39789000000000
H           -4.01821300000000        2.12211700000000       -1.28768000000000
H           -3.69097500000000       -0.19514300000000       -2.21254900000000
H           -1.53549200000000       -1.87314100000000       -2.33967700000000
H           -0.03321400000000       -1.32350900000000       -1.66513600000000
H           -0.78947900000000       -2.11853700000000        0.63067400000000
H           -2.31225900000000       -2.66440500000000       -0.09608900000000
H           -0.77033400000000       -4.31331600000000        0.08227200000000
35
 energy: -58.117124308823 gnorm: 0.036055595831 xtb: 6.6.1 (8d0f1dd)
O           -0.49893091507188        4.52556558178950        1.71634045798219
C           -0.69596866872057        3.34063050224690        1.06801559379971
C            0.22128787903082        2.35877024047920        1.10539003105720
C            0.04661044496465        1.06201429702346        0.42732005993885
N            0.85296345623351        0.07227085014793        0.43968141993250
C            2.10221658930812        0.11483661802525        1.16442502939362
C            2.81543329693211       -1.22597695703623        1.01624223700765
C            3.28425340571994       -1.49105621285682       -0.41021082195911
O            3.94009832202408       -2.74731910028119       -0.51692878987808
C           -1.19739062044248        0.92439878217446       -0.31426207088407
C           -2.13534395373359        1.95383093256615       -0.33839085311143
N           -3.19367967168088        1.55793309794624       -1.09992883614150
C           -2.95165358007905        0.30702641648562       -1.56628219101536
C           -1.72247065770376       -0.13190414715121       -1.10762595902192
C           -1.09509259641713       -1.45099080084156       -1.42204346148966
C           -1.25561763210915       -2.46042032235264       -0.28924845224224
O           -0.63582073154149       -3.68687237665669       -0.66629149701998
C           -1.98278900990452        3.20954268021783        0.32756993577791
O           -2.79819156191098        4.13847296585907        0.32626741083623
H           -1.29169082165043        5.07413841349711        1.54764307350283
H            1.13245738504006        2.51719776042261        1.66419140777114
H            1.91331091386783        0.30699120570912        2.22640749438397
H            2.74131508638309        0.91692101804871        0.77986984495513
H            2.13738377077651       -2.02797061281073        1.32075744577715
H            3.68477347887250       -1.25693377533465        1.67944096505808
H            2.44038081484729       -1.45435657035931       -1.10782503194830
H            4.01459032508891       -0.73684007037706       -0.71527556459696
H            3.26139077295022       -3.43062840408074       -0.40781703998773
H           -4.01289458487548        2.11811646549654       -1.28646749919331
H           -3.66706767763371       -0.18582510629562       -2.19782605237244
H           -1.54936299019016       -1.87141035416937       -2.32549317932550
H           -0.02842417905114       -1.31481693622047       -1.62126136095697
H           -0.78622552987580       -2.07560490007734        0.62372018711106
H           -2.32280192628072       -2.63533015010288       -0.09952031704263
H           -0.76704763316669       -4.31440103113121        0.05941438390195
35
 energy: -58.118780724110 gnorm: 0.012208751734 xtb: 6.6.1 (8d0f1dd)
O           -0.51326144777647        4.49498363114870        1.69459942234697
C           -0.69735949528488        3.32047172658572        1.05903611558280
C            0.22288585561746        2.33684764421609        1.09525498846728
C            0.04111665955586        1.05643177081864        0.42631973037006
N            0.85885370754796        0.07311921930265        0.45027844229455
C            2.10369790468511        0.10934693096631        1.16218083016585
C            2.81385367310818       -1.23499326275758        1.02343835333296
C            3.27902924982254       -1.49268963207744       -0.40926310685031
O            3.94393662576857       -2.73618079841176       -0.54276435980253
C           -1.19845044401203        0.91645127718862       -0.31464997447703
C           -2.13967789243587        1.95283015630993       -0.33618684244437
N           -3.19457779536325        1.55370735559406       -1.10026376529667
C           -2.94823998526156        0.31399232328804       -1.56323272022757
C           -1.71792983649665       -0.12824816839840       -1.10643292628883
C           -1.09143156806332       -1.44202824986624       -1.42245465925486
C           -1.25874497986649       -2.44534266197317       -0.28019336460939
O           -0.63944142648939       -3.66489843927168       -0.66036501307669
C           -1.98155893169031        3.20324103248861        0.32803684105555
O           -2.78939541907258        4.14454540788634        0.33413772987002
H           -1.30311495078004        5.04905193438779        1.53278120147047
H            1.13123071083836        2.50466417945167        1.65278952511681
H            1.92306047524098        0.31083614858026        2.22476714317074
H            2.74469749459134        0.91123663798615        0.77602767249656
H            2.12496674560120       -2.02685883179819        1.32173330429198
H            3.68157189591377       -1.25916648989073        1.68451186569651
H            2.42215470274885       -1.43909167356413       -1.09165702490433
H            4.01284120701667       -0.74089096871852       -0.71202005796291
H            3.29067612838161       -3.43821225582831       -0.41217969117384
H           -4.01202972852488        2.11317126321661       -1.28695427207034
H           -3.65289029937058       -0.18720330642308       -2.19452511416464
H           -1.54574573263018       -1.86345845654785       -2.32025448292865
H           -0.02240222879304       -1.30231206817875       -1.59089174475705
H           -0.78646994447643       -2.04138172264944        0.62369234965763
H           -2.32794171392487       -2.61066791508792       -0.09038520042174
H           -0.77390821612562       -4.31130373797308        0.04508680532498
35
 energy: -58.119004779602 gnorm: 0.005936470941 xtb: 6.6.1 (8d0f1dd)
O           -0.51414213422736        4.49080198832045        1.69188600687896
C           -0.69654355634003        3.31797117262667        1.05864859181540
C            0.22443739784432        2.33307685845667        1.09227459178490
C            0.04046664101517        1.05441645295979        0.42476754458061
N            0.85874446232168        0.06899237082266        0.45209982813801
C            2.10176325155834        0.10573155354130        1.16217959872336
C            2.81125110466244       -1.24012282944694        1.02393650086362
C            3.27614892425578       -1.49174682637126       -0.41078396746771
O            3.94694355025518       -2.72854995985335       -0.55744921104478
C           -1.19952338885626        0.91444684739846       -0.31596027552229
C           -2.14314583864207        1.95086690082065       -0.33544529949189
N           -3.19691436549264        1.55026528583830       -1.10198415878374
C           -2.94913996773726        0.31390612524272       -1.56807459990965
C           -1.71670155641951       -0.12691520003273       -1.10989105348883
C           -1.08668150052552       -1.43845148595024       -1.42195837707775
C           -1.25875308580993       -2.43745285014611       -0.27479747166283
O           -0.64200389584300       -3.65631490705892       -0.65048884390904
C           -1.98139984043157        3.19750124763975        0.32915029010032
O           -2.78532893750134        4.14329453929065        0.33927248583359
H           -1.30574517935685        5.04439974581104        1.53083110471566
H            1.13229349249385        2.50312229423826        1.64962997159293
H            1.92721315671614        0.31121249501982        2.22617826119953
H            2.74674947069101        0.90497384330676        0.77464556791580
H            2.12092237446641       -2.03121490091256        1.31890706165019
H            3.67707522238842       -1.26511271620063        1.68678019658358
H            2.41574651535025       -1.43538868808237       -1.08800650428045
H            4.00520234934550       -0.73394638138589       -0.70986275416462
H            3.30735509698096       -3.44129151274248       -0.41552960451897
H           -4.01441386940943        2.11073498985201       -1.28752531215563
H           -3.64896781118293       -0.19286289879366       -2.20162200786301
H           -1.53379782849013       -1.86346699649102       -2.32051798768162
H           -0.01715746292732       -1.29792929136763       -1.58082354970516
H           -0.78774171760055       -2.02788704946384        0.62706263932403
H           -2.32844346816351       -2.59744181216353       -0.08401919970330
H           -0.78576660538818       -4.30961840472298        0.04648793673073
35
 energy: -58.119143126700 gnorm: 0.004027324241 xtb: 6.6.1 (8d0f1dd)
O           -0.51458820755461        4.48930498163834        1.69148673012849
C           -0.69530610849458        3.31654400559676        1.05984016336978
C            0.22658396851565        2.33123822765493        1.09002884988618
C            0.04003484244888        1.05226017021881        0.42424907960111
N            0.85577103218933        0.06287182531787        0.45324524393078
C            2.09813583287352        0.09927658633386        1.16160468264310
C            2.80637357495922       -1.24848275950820        1.02232848755750
C            3.27182264475972       -1.48845012906513       -0.41478670915177
O            3.95192968357304       -2.71580389322674       -0.57524392816350
C           -1.20021504703483        0.91384015368547       -0.31748754308062
C           -2.14701971159780        1.94871475457792       -0.33457953288611
N           -3.19900020785590        1.54619406212631       -1.10440191296332
C           -2.94845987825519        0.31284396839134       -1.57552877940131
C           -1.71334804910470       -0.12508236441805       -1.11595970136500
C           -1.07781707716259       -1.43495683574101       -1.42036601318892
C           -1.25774804386433       -2.42756184233516       -0.26730212552981
O           -0.64595017919181       -3.64847861063216       -0.63304078234693
C           -1.98208996998470        3.19150895721362        0.33064736163866
O           -2.78249225515378        4.14123466644196        0.34655871058701
H           -1.30996718101449        5.03946585314166        1.52891597214106
H            1.13560394025968        2.50316142623160        1.64518853570612
H            1.92995035331107        0.30762719575918        2.22692773791145
H            2.74720832636820        0.89582903799110        0.77286372750951
H            2.11499581824810       -2.04051016230553        1.31219538734107
H            3.66992464315089       -1.27692278175068        1.68817857182899
H            2.40879528840494       -1.43306044660963       -1.08807343535403
H            3.99261937302795       -0.72042426167479       -0.70866135922461
H            3.32954475112700       -3.44101042425472       -0.41913637309764
H           -4.01715542179598        2.10761969267268       -1.28801585812821
H           -3.64213593149256       -0.19988858170615       -2.21251360208311
H           -1.51352122537557       -1.86679006795350       -2.32118439836915
H           -0.00757140431435       -1.29338393824545       -1.56953293669143
H           -0.78868771959806       -2.01230350621875        0.63304923189551
H           -2.32867449661618       -2.57908467917020       -0.07641347350252
H           -0.80754495775507       -4.30734028017780        0.05491799085159
35
 energy: -58.119191729246 gnorm: 0.003945345582 xtb: 6.6.1 (8d0f1dd)
O           -0.51607566568195        4.48939156096878        1.69155596510764
C           -0.69495634609025        3.31575491198300        1.06048866093371
C            0.22787110055087        2.33153737323648        1.08928904625444
C            0.04059633649822        1.05204762083256        0.42411214609117
N            0.85340323170409        0.06033752054641        0.45367570429236
C            2.09569529265213        0.09452995392470        1.16231847672346
C            2.80267595351229       -1.25378973681685        1.01913503578719
C            3.26935603573375       -1.48593219771224       -0.41879009753698
O            3.95676745514863       -2.70724055248063       -0.58582049353426
C           -1.19952402269851        0.91455437443622       -0.31826440155559
C           -2.14819196785957        1.94766110565170       -0.33436172399839
N           -3.19849183176408        1.54429349554357       -1.10650433393178
C           -2.94546690969989        0.31204607786725       -1.57969687842226
C           -1.70978890543383       -0.12422185328958       -1.11913721943557
C           -1.07115091289826       -1.43377317906821       -1.41826253817760
C           -1.25692719601990       -2.42184435379278       -0.26198315472015
O           -0.64963666475587       -3.64640003065010       -0.62012774071496
C           -1.98348284961217        3.18912220712779        0.33212121965101
O           -2.78297341300953        4.13967947544535        0.35094734170892
H           -1.31418295334573        5.03603694465770        1.52728532475462
H            1.13784092065329        2.50368820945636        1.64311482669079
H            1.92840938699016        0.30178566784526        2.22786369294638
H            2.74586482419538        0.89062381412375        0.77421018677420
H            2.11036339518652       -2.04690904654301        1.30451208206687
H            3.66512251325149       -1.28618110097397        1.68650181255373
H            2.40546285738263       -1.43305489854401       -1.09133455278561
H            3.98436989039035       -0.71115149006251       -0.70963753300997
H            3.34351958026394       -3.43793000694223       -0.42170084842326
H           -4.01729219061432        2.10543251794022       -1.28926379237487
H           -3.63595103510819       -0.20230198169660       -2.21884266107256
H           -1.50056352093937       -1.86967517283124       -2.32048053256441
H           -0.00036495408271       -1.29128819709524       -1.56273388455395
H           -0.78846674856999       -2.00431154224519        0.63787116420504
H           -2.32904200567970       -2.56693038026742       -0.07233881386758
H           -0.82478768024974       -4.30558711057559        0.06427651413807
35
 energy: -58.119244890239 gnorm: 0.002798175350 xtb: 6.6.1 (8d0f1dd)
O           -0.51984593842501        4.48983013430345        1.69186809672875
C           -0.69539624495379        3.31467781784054        1.06113701392851
C            0.22928848675995        2.33297506562173        1.08895581722904
C            0.04168446163809        1.05266017285104        0.42458690408082
N            0.85027516786731        0.05835646166565        0.45491318327001
C            2.09288171425183        0.08750594781308        1.16443337124731
C            2.79732361264526       -1.26112205056917        1.01278599965860
C            3.26580248846859       -1.48221318985922       -0.42599673214008
O            3.96501560524474       -2.69505970030444       -0.59973321271962
C           -1.19756178128335        0.91619296786323       -0.31924660809581
C           -2.14833183213008        1.94663847428603       -0.33522932367188
N           -3.19618309867429        1.54208798016393       -1.11020998776065
C           -2.93912133869376        0.31080872991044       -1.58483667085203
C           -1.70363992165828       -0.12323774311673       -1.12269536353046
C           -1.06137597145884       -1.43283972871883       -1.41443119987666
C           -1.25575131939205       -2.41409417863948       -0.25400576572383
O           -0.65615794360386       -3.64555224415448       -0.60176730012228
C           -1.98569634211331        3.18725355820305        0.33355864330879
O           -2.78561133457433        4.13702159268423        0.35623811697510
H           -1.32139105585225        5.03143102591946        1.52531831432720
H            1.14057200796401        2.50514216430364        1.64090951385765
H            1.92432025454785        0.28955102886653        2.23019232941207
H            2.74353359840735        0.88453299544786        0.77961963586284
H            2.10295362786167       -2.05547656763414        1.29078411248752
H            3.65872255776773       -1.30062047186276        1.68145274651936
H            2.40113962741281       -1.43482075275060       -1.09863691667640
H            3.97239108046579       -0.69830992220123       -0.71357013902435
H            3.36321696630755       -3.43189480444005       -0.42419376369785
H           -4.01615392264025        2.10171883895751       -1.29234055399627
H           -3.62624177346707       -0.20387203336125       -2.22683302964924
H           -1.48387075752254       -1.87362743024745       -2.31792501470167
H            0.01014472519440       -1.28904252531499       -1.55311187704509
H           -0.78683784829634       -1.99464693097277        0.64505371363628
H           -2.32956322685048       -2.54942163240870       -0.06667802685666
H           -0.85053333121481       -4.30253305014555        0.07963197361082
35
 energy: -58.119277146636 gnorm: 0.001942716427 xtb: 6.6.1 (8d0f1dd)
O           -0.52392864149129        4.48999658119748        1.69232134334260
C           -0.69656297162431        3.31404832320550        1.06123238041336
C            0.22995415952455        2.33457472936916        1.08916891712671
C            0.04274272440023        1.05379107672565        0.42521795392548
N            0.84846867704875        0.05795043960318        0.45691025118660
C            2.09119235533987        0.08169354293955        1.16741837660982
C            2.79332119717391       -1.26672188951925        1.00615197884671
C            3.26319511585826       -1.47859122459767       -0.43332214307462
O            3.97336600883673       -2.68455927592112       -0.61080541830154
C           -1.19526084945244        0.91763381549106       -0.32028245071371
C           -2.14717735495029        1.94625033869704       -0.33743886128422
N           -3.19287086836819        1.54087469018251       -1.11478547822654
C           -2.93272473428132        0.30980502836615       -1.58899992034236
C           -1.69820712103470       -0.12274744327006       -1.12476969236907
C           -1.05412874127991       -1.43291166350044       -1.41046324138267
C           -1.25553878968815       -2.40820125052941       -0.24663549173552
O           -0.66370842862134       -3.64626661103236       -0.58712857342049
C           -1.98741687160565        3.18641345366297        0.33402331814794
O           -2.78877838952378        4.13441560533459        0.35900150246820
H           -1.32749206495724        5.02844736183326        1.52517190460804
H            1.14150959711679        2.50658113705245        1.64072240766065
H            1.92016661969538        0.27598368378974        2.23383032642098
H            2.74195006976694        0.88104134228872        0.78835875975796
H            2.09683834390889       -2.06173657657210        1.27723714635247
H            3.65430791737520       -1.31306631707306        1.67498907571469
H            2.39820192216479       -1.43715425646889       -1.10651745647080
H            3.96258889442823       -0.68754514840482       -0.71894394177977
H            3.38034228014711       -3.42596331459257       -0.42621991754487
H           -4.01382725707560        2.09858403301275       -1.29737879676171
H           -3.61819929575291       -0.20404608815306       -2.23304622738141
H           -1.47289330053688       -1.87691936625472       -2.31410141643266
H            0.01792221598696       -1.28870905990701       -1.54475103086956
H           -0.78475041885998       -1.98816752054622        0.65127230626312
H           -2.33045119505411       -2.53508619893857       -0.06074956315746
H           -0.87214980461425       -4.29969197747097        0.09330967240345
35
 energy: -58.119301263313 gnorm: 0.002008381957 xtb: 6.6.1 (8d0f1dd)
O           -0.52831194894220        4.48967266387636        1.69380147336341
C           -0.69860777765313        3.31399387571145        1.06116153332367
C            0.22957952408660        2.33614180451850        1.09035005976227
C            0.04361849315783        1.05523093772426        0.42631279618685
N            0.84773200656933        0.05863910298905        0.46024709240347
C            2.09006816167480        0.07637810221809        1.17179448035460
C            2.79058451285135       -1.27105764797844        0.99836681531597
C            3.26158376101963       -1.47397947178836       -0.44185617748408
O            3.98321314611276       -2.67365412815860       -0.62076347880772
C           -1.19253792108108        0.91881102902941       -0.32166549088129
C           -2.14436681620052        1.94684083665673       -0.34203052091193
N           -3.18810230151646        1.54080636674846       -1.12139577040516
C           -2.92603821698146        0.30905478299137       -1.59336874746372
C           -1.69328042259740       -0.12278186922454       -1.12582308124200
C           -1.04950308941689       -1.43444674474412       -1.40560241486641
C           -1.25699928314512       -2.40392153398094       -0.23843219463103
O           -0.67395203486112       -3.64846894687821       -0.57448181365871
C           -1.98801792952555        3.18668531415089        0.33237894438970
O           -2.79213172286780        4.13191250258707        0.35849340232068
H           -1.33219554333270        5.02739730445920        1.52786137752360
H            1.14021991101617        2.50805538561815        1.64320980024750
H            1.91558073978648        0.25877968654664        2.23975535671843
H            2.74092216398702        0.88010489817011        0.80275187157602
H            2.09213197989419       -2.06651388195923        1.26226594945896
H            3.65173992811512       -1.32459165362155        1.66628094882989
H            2.39677577582632       -1.43990969697718       -1.11597921224108
H            3.95384912989973       -0.67655534164728       -0.72630617326990
H            3.39786126305817       -3.41917440562409       -0.42978531145642
H           -4.00974194576515        2.09634255091340       -1.30614781980703
H           -3.61130092381833       -0.20318764933124       -2.23883456646744
H           -1.46705839216161       -1.88085480057821       -2.30824951458757
H            0.02294380080468       -1.29140459150152       -1.53654005260455
H           -0.78237785740194       -1.98452033607884        0.65760495250841
H           -2.33237703577177       -2.52287621631414       -0.05239354095768
H           -0.89150213481965       -4.29694822852331        0.10701702746001
35
 energy: -58.119312098294 gnorm: 0.001532995749 xtb: 6.6.1 (8d0f1dd)
O           -0.52871202757844        4.48915560343451        1.69488557389470
C           -0.69909262714027        3.31428079840739        1.06110305140099
C            0.22890312008400        2.33597282261354        1.09118431719371
C            0.04352930655753        1.05524419606192        0.42681496420916
N            0.84784132477191        0.05868645247326        0.46168345544103
C            2.08959140811083        0.07525327690330        1.17350353583959
C            2.79092720106206       -1.27132167285854        0.99635908941609
C            3.26199588593909       -1.47182257211887       -0.44423277197200
O            3.98663577303112       -2.67005161439991       -0.62327778537783
C           -1.19199305229532        0.91870979264400       -0.32218996649022
C           -2.14293305858547        1.94764986732789       -0.34438014175285
N           -3.18624647463980        1.54181575364886       -1.12435169567853
C           -2.92496633258758        0.30930103850701       -1.59483019790121
C           -1.69301983104299       -0.12315148950597       -1.12561639065400
C           -1.05066220501869       -1.43580657115839       -1.40389657546611
C           -1.25879252087113       -2.40426235254897       -0.23593380950781
O           -0.67752789677995       -3.64950188262869       -0.57245523572448
C           -1.98720763014450        3.18719773719194        0.33078105637733
O           -2.79200280730147        4.13200163960326        0.35600022147911
H           -1.33169069702140        5.02825328873559        1.53003096446034
H            1.13849219172334        2.50775240379742        1.64573900431958
H            1.91417203241691        0.25315883877491        2.24227908088299
H            2.74052123801900        0.88103273027855        0.80895637052082
H            2.09273752835739       -2.06733385634059        1.25868952098776
H            3.65240529495418       -1.32600797996793        1.66363154957961
H            2.39730727161994       -1.43986524735287       -1.11840874775065
H            3.95241745505741       -0.67286135273390       -0.72848415817061
H            3.40290277675332       -3.41705114302085       -0.43280603442466
H           -4.00751227451316        2.09731623443688       -1.31084035866524
H           -3.61064915896852       -0.20263275038320       -2.24025166964426
H           -1.46887077672245       -1.88265418812002       -2.30591903329152
H            0.02189883243835       -1.29418149376594       -1.53473153496437
H           -0.78270539309667       -1.98523510977758        0.65939630482856
H           -2.33399079245261       -2.52221960190957       -0.04882500879914
H           -0.89370208413564       -4.29682159624916        0.11039105540385
35
 energy: -58.119330638328 gnorm: 0.001373414711 xtb: 6.6.1 (8d0f1dd)
O           -0.52811296300241        4.48738279637383        1.69802432013321
C           -0.69958726322832        3.31472856102662        1.06131161695700
C            0.22677105776036        2.33422442124220        1.09393734457336
C            0.04264813589070        1.05412916942162        0.42843023845390
N            0.84766188592480        0.05773060593617        0.46514177287549
C            2.08784894150650        0.07312725747845        1.17760267773408
C            2.79316849619611       -1.27067801716881        0.99307657464862
C            3.26373804867636       -1.46597122373180       -0.44854258498280
O            3.99407642599749       -2.66131956797083       -0.62844394919893
C           -1.19147963452584        0.91780688825280       -0.32306763374830
C           -2.13916089138694        1.95017737989476       -0.35035254881272
N           -3.18202562945707        1.54530140192168       -1.13121049616944
C           -2.92411489234886        0.31052122099123       -1.59772496421323
C           -1.69427233882842       -0.12451126435898       -1.12441729207335
C           -1.05621593058190       -1.43973193625216       -1.40015190113204
C           -1.26352348449499       -2.40718626298362       -0.23094490037487
O           -0.68535480513626       -3.65282978651588       -0.57028425562983
C           -1.98374407191902        3.18929349422943        0.32543097924335
O           -2.78928093042055        4.13404468567651        0.34737103224631
H           -1.32795147440247        5.03095582875864        1.53470935242137
H            1.13361822786001        2.50538143865740        1.65315842373656
H            1.91038310270554        0.24122692218302        2.24820597443148
H            2.73838392963931        0.88402403823075        0.82315535408016
H            2.09732650188686       -2.06916331836333        1.25318906984432