77
 energy: -135.959562616471 gnorm: 0.142268103495 xtb: 6.6.1 (8d0f1dd)
C            1.51602400000000        1.92677500000000       -1.12186600000000
C            1.48729400000000        0.45112200000000       -0.70338000000000
C            2.71633800000000       -0.26110400000000       -1.22676900000000
C            3.85083800000000       -0.36475200000000       -0.40749400000000
C            5.03894500000000       -0.92340300000000       -0.92350200000000
C            5.06764400000000       -1.41190700000000       -2.23121300000000
C            3.92900400000000       -1.33497100000000       -3.03378600000000
C            2.76196900000000       -0.75300400000000       -2.53974000000000
N            6.18280600000000       -0.93553000000000       -0.12147700000000
C            6.26169800000000       -0.26834800000000        1.11772000000000
C            7.48788500000000       -0.08542300000000        1.79123200000000
C            7.53061000000000        0.69288200000000        2.95868200000000
C            6.37964800000000        1.30671600000000        3.44354900000000
C            5.16303200000000        1.12337000000000        2.78762400000000
C            5.06596800000000        0.30205200000000        1.65046400000000
N            3.80136100000000        0.07257100000000        0.96908600000000
C            2.50417800000000        0.13475900000000        1.59352600000000
C            1.34684700000000        0.32318500000000        0.80797500000000
C            0.06635800000000        0.39757200000000        1.38539500000000
N           -1.00180400000000        0.63986600000000        0.59820600000000
C           -2.23246000000000        0.70489100000000        1.14220500000000
C           -3.36435400000000        0.93835800000000        0.34713200000000
C           -4.63450500000000        1.03287000000000        0.94523700000000
C           -4.77793500000000        0.87464100000000        2.31710400000000
C           -3.65101800000000        0.63062100000000        3.09657300000000
C           -2.38641600000000        0.54746400000000        2.53108800000000
N           -1.32951500000000        0.32252000000000        3.32757300000000
C           -0.09848400000000        0.22524100000000        2.77354200000000
C            1.04093100000000       -0.03541800000000        3.53280900000000
C            2.31954300000000       -0.09128700000000        2.95741500000000
C            0.91185800000000       -0.29460300000000        4.98146900000000
O            0.06331600000000       -0.94402100000000        5.55839800000000
O            1.91899900000000        0.29255800000000        5.66230200000000
C           -3.20041500000000        1.12697000000000       -1.15321400000000
C           -3.00909700000000        2.60491200000000       -1.48754000000000
O           -4.38733500000000        0.68941600000000       -1.84395000000000
C           -4.35057500000000       -0.56731400000000       -2.34747100000000
O           -3.43843700000000       -1.37271000000000       -2.27334100000000
C           -5.67190800000000       -0.87220300000000       -2.93020800000000
C           -6.44759200000000       -1.91925900000000       -2.39187000000000
C           -7.69211100000000       -2.20285100000000       -2.97490100000000
C           -8.15823900000000       -1.45576600000000       -4.05891500000000
C           -7.38516700000000       -0.42175800000000       -4.58675300000000
C           -6.14090400000000       -0.13486600000000       -4.02678200000000
O           -5.37168100000000        0.85800400000000       -4.56887200000000
C           -5.96623700000000       -2.74791200000000       -1.23301700000000
C            8.78817800000000       -0.64868000000000        1.33576600000000
O            9.86467600000000       -0.45902600000000        1.87519700000000
O            8.71311400000000       -1.43324800000000        0.24242000000000
H            2.38206200000000        2.44989600000000       -0.69893900000000
H            1.57179900000000        2.02632400000000       -2.21166400000000
H            0.61741100000000        2.45640300000000       -0.78774000000000
H            0.62193700000000       -0.03759000000000       -1.17146100000000
H            5.97807400000000       -1.84455100000000       -2.63606700000000
H            3.95600300000000       -1.71464600000000       -4.05200200000000
H            1.88797400000000       -0.67765300000000       -3.18379600000000
H            7.03016600000000       -1.38631200000000       -0.45408400000000
H            8.47315500000000        0.84730600000000        3.48217300000000
H            6.43003000000000        1.93736000000000        4.32823300000000
H            4.29614000000000        1.65805700000000        3.16629000000000
H           -5.51625300000000        1.23055100000000        0.33808900000000
H           -5.75889700000000        0.94075900000000        2.78035500000000
H           -3.75540500000000        0.50344400000000        4.17196400000000
H            3.16059500000000       -0.36391300000000        3.58990300000000
H            1.71580200000000        0.06980800000000        6.59612900000000
H           -2.32827600000000        0.57673400000000       -1.52585000000000
H           -3.87842300000000        3.19857800000000       -1.18201700000000
H           -2.12109500000000        3.01902900000000       -0.99934800000000
H           -2.90435000000000        2.73750200000000       -2.57000700000000
H           -8.30911200000000       -3.01182100000000       -2.58751000000000
H           -9.12631700000000       -1.68779700000000       -4.49767600000000
H           -7.76460200000000        0.13855700000000       -5.43617100000000
H           -5.84284600000000        1.25786200000000       -5.31831800000000
H           -5.15208000000000       -3.40740900000000       -1.55052000000000
H           -6.76992200000000       -3.37485000000000       -0.83144200000000
H           -5.62189300000000       -2.10739600000000       -0.41448600000000
H            9.64545400000000       -1.71420700000000        0.11233400000000
77
 energy: -135.981604269546 gnorm: 0.068054441699 xtb: 6.6.1 (8d0f1dd)
C            1.51931597421643        1.93237790905466       -1.12530396005089
C            1.48824258008610        0.45523990709086       -0.71663964883257
C            2.72351455460033       -0.24969213331906       -1.21464783364798
C            3.84370421337593       -0.35321384271944       -0.39189933324720
C            5.02765329864588       -0.91153173027942       -0.90203813448344
C            5.06211826891724       -1.39837078767001       -2.20756187923528
C            3.93064465669710       -1.32726054854021       -3.00679684005044
C            2.77165997018310       -0.74753883137451       -2.51639812028797
N            6.15758268104299       -0.93739167138343       -0.10227433045410
C            6.23213186797173       -0.26690051137133        1.10365012762043
C            7.46296509303662       -0.08565583456798        1.77638310805581
C            7.50404873635266        0.68880945897825        2.94475131021881
C            6.36093212146700        1.29642965083393        3.42046366812759
C            5.14297221147838        1.11147369568543        2.76754400008268
C            5.03987796402501        0.29584100702358        1.64105707126226
N            3.79159672914311        0.06939499599220        0.97099369848975
C            2.51044389114769        0.13658267268532        1.57455111645878
C            1.36767021290674        0.32395080062682        0.78138306688420
C            0.07583246633031        0.39255842870603        1.35661006752062
N           -0.98886822469253        0.63668632711385        0.57192228024611
C           -2.20930106064663        0.70062152557675        1.12806754548360
C           -3.35530296154897        0.94360539388458        0.33519187718536
C           -4.60024867444403        1.03042501180645        0.93675505506154
C           -4.74773221964304        0.87105753372915        2.31888619673864
C           -3.64571489019238        0.63111227818138        3.10861795667331
C           -2.36578134561619        0.54228578586109        2.53871367174508
N           -1.30565086742951        0.32281317473850        3.33009356175393
C           -0.09466435299339        0.22252693612144        2.76458610911324
C            1.06059681945910       -0.04139539646584        3.53240832139462
C            2.32015725354926       -0.08240039017589        2.95280424350170
C            0.92975897817143       -0.29903182575394        4.98084818267064
O            0.06577325498698       -0.93866563646516        5.53889736634365
O            1.91939884339227        0.28214216346123        5.67828187533081
C           -3.19762989535971        1.14198172234026       -1.15634322947539
C           -3.01185818014242        2.61761980551551       -1.49554542254354
O           -4.37492932370366        0.67911488883287       -1.84268310154593
C           -4.36733009911375       -0.57021149767961       -2.32534306389552
O           -3.43713096624960       -1.34588117664175       -2.26749981191794
C           -5.68379855133018       -0.88516592934166       -2.93492317027493
C           -6.45542544527498       -1.92906422504576       -2.40628401575558
C           -7.69331134258206       -2.20016507624071       -2.98045108917638
C           -8.15585217863323       -1.45897591412436       -4.05714695006560
C           -7.39027541853879       -0.43192296867591       -4.58253735067116
C           -6.15057755689908       -0.13961500918650       -4.02401544664819
O           -5.36943242011616        0.84578614817366       -4.54984381935314
C           -5.97257452746676       -2.74096715557726       -1.23957729169559
C            8.75975725974016       -0.64638329408880        1.33792374689219
O            9.82426365585605       -0.43937461877818        1.89340596132327
O            8.72515105675587       -1.43402617104591        0.24759949562947
H            2.38460393137009        2.43815451941543       -0.69476686623287
H            1.57347848218976        2.02073807041104       -2.20981560748461
H            0.61749548033292        2.43952968171245       -0.78270165538042
H            0.60793102524563       -0.01519290256532       -1.17072985163422
H            5.96970254895089       -1.83186816700395       -2.60553680526854
H            3.95858591736492       -1.70680838679395       -4.02020973808480
H            1.89996951137197       -0.67417308801127       -3.15435891861347
H            7.00491156260883       -1.37388291953235       -0.44596008557774
H            8.44776403244755        0.82977456949527        3.45864139805161
H            6.41256989094240        1.92191492029826        4.30159179517743
H            4.27695727144166        1.63267463145562        3.15003593802348
H           -5.47704931122272        1.22057832942261        0.32911952585263
H           -5.72912754147425        0.93718494150454        2.77038323600966
H           -3.75101368613100        0.50172738996742        4.17653462845649
H            3.15730288012332       -0.34842629819687        3.58366385714205
H            1.73975947076310        0.07788262208293        6.61857303118765
H           -2.33320323988546        0.56883486433809       -1.51007139875920
H           -3.88096813872344        3.19202464462217       -1.17502572829399
H           -2.12495218767577        3.00600149337770       -0.99888312295108
H           -2.90068044868575        2.73534333966785       -2.57304484867798
H           -8.30304525294853       -3.00140632963356       -2.58681671748923
H           -9.11874939184780       -1.68662407212245       -4.49245625420684
H           -7.76106586290711        0.13258861808712       -5.42685778464488
H           -5.82842992492986        1.25621676194622       -5.30179228375937
H           -5.15122556560527       -3.38804297619135       -1.54861910385552
H           -6.77288739597151       -3.36759985443846       -0.84640800225329
H           -5.61225843792142       -2.10317224528591       -0.43102990729515
H            9.64925426985836       -1.72361020353045        0.09990443206286
77
 energy: -135.989287972616 gnorm: 0.016882617981 xtb: 6.6.1 (8d0f1dd)
C            1.52396054206725        1.94136292868055       -1.12920666068409
C            1.48950171696143        0.46079752037207       -0.72414245304104
C            2.72393920802748       -0.23906964113957       -1.20991002368699
C            3.83193443353767       -0.34334454034426       -0.38068005596219
C            5.01327725099081       -0.90489904610602       -0.88436501655187
C            5.05712666177834       -1.38919526748487       -2.18721016998578
C            3.93265611363293       -1.32095066203038       -2.98938291950673
C            2.77690936786059       -0.74118311387578       -2.50429438668668
N            6.13015614649447       -0.95045121626985       -0.08061048116210
C            6.19896102546315       -0.27377509199674        1.09461287666032
C            7.43042421914611       -0.09023660752143        1.76609995049691
C            7.46714091565420        0.68611683262378        2.93469713847319
C            6.32933525030462        1.28968182878246        3.40342111079023
C            5.11062415550640        1.10298543721714        2.75041743127941
C            5.00918242567885        0.29121252757386        1.63246835569580
N            3.77832270245299        0.06335033463454        0.97172619757908
C            2.51629446361658        0.13925709038830        1.55791825162351
C            1.38530396222724        0.32109767100750        0.76392992954525
C            0.08854422155136        0.38353018343519        1.33822839464213
N           -0.97215275522489        0.62963730856527        0.55690044850497
C           -2.18123159889645        0.69541319412917        1.12070744290922
C           -3.33922806199724        0.94649684457765        0.32862539808222
C           -4.56391887042085        1.02697387456837        0.93070173514281
C           -4.71422985462997        0.86473842473044        2.32108179804768
C           -3.63087903244125        0.62955894037697        3.11582771255116
C           -2.34003357588980        0.53765647313497        2.54275632590601
N           -1.27785462430607        0.32276358939534        3.32810196108411
C           -0.08582958987192        0.21970199810033        2.75701087407691
C            1.08407611823434       -0.04076290191919        3.53187630822652
C            2.32499586635145       -0.07117009695108        2.94881669772492
C            0.94333170115748       -0.29406998713195        4.98112403840436
O            0.06506504988372       -0.93651213082071        5.51401422742843
O            1.92553884399530        0.26534126925996        5.69108166746568
C           -3.18780270514334        1.14446357358125       -1.15913348643658
C           -3.01263703659423        2.62038647417437       -1.50173602421385
O           -4.36267349695778        0.67213274751879       -1.84271996850003
C           -4.37271324330087       -0.56261382862703       -2.32471472080352
O           -3.43669357551208       -1.32921708427212       -2.25105690930289
C           -5.69392198117558       -0.88921575929725       -2.93294474326714
C           -6.46459960025435       -1.92966097998416       -2.40807564580452
C           -7.69608659657952       -2.20223102105933       -2.98232473571205
C           -8.15592691013227       -1.46431847301846       -4.05693493982049
C           -7.39246353662590       -0.44150886575361       -4.58130219588645
C           -6.15478788965267       -0.14372945060423       -4.02272440909079
O           -5.36410905469857        0.83764888811171       -4.52750926472640
C           -5.97549326581443       -2.73534751253026       -1.24340553616807
C            8.72392214357366       -0.63808874813224        1.33829252569579
O            9.77637000219649       -0.41549604158180        1.91603916717428
O            8.72609066629528       -1.43247313941778        0.25439626844421
H            2.38773050084371        2.43484479339022       -0.69173459126915
H            1.57825947180701        2.02542796396674       -2.21002504274451
H            0.61963545872388        2.43141124400742       -0.78035016304567
H            0.59958124114583        0.00802621264780       -1.17329407069581
H            5.96768580517200       -1.82098739930361       -2.57077878822502
H            3.96348051695307       -1.70492540119429       -3.99679246882210
H            1.90373909501434       -0.67026212156489       -3.13335492617536
H            6.97933525061593       -1.36598671260008       -0.44165135602281
H            8.41509785395830        0.81318563925578        3.43581360788803
H            6.37811210550674        1.91335019399924        4.28076111351106
H            4.24133168852125        1.61206166667716        3.13240688435909
H           -5.43801446348513        1.21260551179352        0.32320424510654
H           -5.69849789547834        0.93265832660929        2.75895784867557
H           -3.72964663552670        0.50077314193939        4.18028837313300
H            3.16580015533716       -0.32828562316907        3.57342072670845
H            1.77997089066608        0.08132325240276        6.64095329625527
H           -2.32645812888916        0.56160635482402       -1.50582721118530
H           -3.88159451321820        3.18059308283011       -1.17008557292673
H           -2.12665332292867        2.99427200743986       -1.00047215566424
H           -2.90070402294627        2.73467262626276       -2.57496221597129
H           -8.30045190465456       -2.99954643951469       -2.58221703874511
H           -9.11729303545539       -1.68692305479808       -4.48980895986189
H           -7.75502452976662        0.13021734337294       -5.42134698781992
H           -5.80788717592603        1.26020952799039       -5.28223447688550
H           -5.14578031786362       -3.37012348731354       -1.55173017600843
H           -6.77149775140475       -3.36380250340667       -0.85558227854631
H           -5.60804608329440       -2.09368324657489       -0.44425443799264
H            9.64007542805232       -1.73550064703946        0.08420733631587
77
 energy: -135.990821730192 gnorm: 0.012095922685 xtb: 6.6.1 (8d0f1dd)
C            1.52847115435238        1.95223841291991       -1.12929582634363
C            1.48833256632407        0.46826180931214       -0.73109115903736
C            2.71853891372668       -0.23369772398213       -1.21941724756633
C            3.82259381598682       -0.34213647850464       -0.38647671930361
C            5.00161292122754       -0.91149144189643       -0.88319522008175
C            5.05252712390545       -1.39312371815737       -2.18424200297103
C            3.93187258336599       -1.32217128273440       -2.99182351054469
C            2.77521373156666       -0.73904934208927       -2.51183489776132
N            6.11169959440745       -0.97091390871541       -0.07019064998523
C            6.17942142604944       -0.28070998016462        1.09553585144311
C            7.40501743641036       -0.09268079961160        1.77026398466756
C            7.43357648709113        0.68929766890261        2.93696258431456
C            6.29485104874504        1.29356595846992        3.40024726052347
C            5.08003852728909        1.10552341508159        2.74090860697632
C            4.99050080408419        0.29049550052878        1.62694450697209
N            3.76902255548524        0.05861193552259        0.96393842361005
C            2.51606764697721        0.14066925062342        1.54907439916027
C            1.38896537742442        0.32037097417941        0.75669089459732
C            0.09800929958011        0.37974413029205        1.33540236660843
N           -0.96038751507039        0.62467492376105        0.55388326500694
C           -2.16447917112173        0.69186661520874        1.11955592467171
C           -3.32305660889620        0.94411510702596        0.32589011235399
C           -4.54500419191116        1.02290243194537        0.92982428837268
C           -4.69452889094907        0.86121117715208        2.32224401908156
C           -3.61303452857399        0.62857547104482        3.11717283778982
C           -2.32260497188486        0.53707939308510        2.54164173064033
N           -1.26066231787598        0.32501973645521        3.32660059600430
C           -0.07319720526798        0.22044908216284        2.75496052938678
C            1.10032798112950       -0.03619003397201        3.53218882624590
C            2.33426167028783       -0.06571836496669        2.94403230162413
C            0.95909728814411       -0.29722842387880        4.98128693395478
O            0.06998141461419       -0.93699793993388        5.50118518091470
O            1.94007871239113        0.25213474267670        5.69470646539134
C           -3.17527681240454        1.14086152028932       -1.16271793100739
C           -3.00605437499516        2.61768116543653       -1.50523269401198
O           -4.35715488270382        0.67027457044531       -1.83725713064215
C           -4.37565393864395       -0.56511348204208       -2.31191184928031
O           -3.43637110084111       -1.33170114718886       -2.24096175342157
C           -5.69514741426811       -0.89116308775332       -2.92571500633651
C           -6.46617510021267       -1.93296666395918       -2.40679180777139
C           -7.69826474396341       -2.20443495464241       -2.98235531561209
C           -8.15507862463286       -1.46423569420507       -4.05772807413914
C           -7.38854909369678       -0.44087193199179       -4.57884585012450
C           -6.15202635891568       -0.14284201212495       -4.01543571285615
O           -5.35517299536053        0.83738033598896       -4.50834804988973
C           -5.97498255063278       -2.73467007048798       -1.24182110534932
C            8.69768871972793       -0.63864432082198        1.35067721503732
O            9.74591146063800       -0.40246155458092        1.93305159624919
O            8.71176216732698       -1.42711663318887        0.26395772229104
H            2.39299527369620        2.44067887728223       -0.68762507439377
H            1.58485710269511        2.03966052432351       -2.20971703089769
H            0.62393773748850        2.43991605689847       -0.77872517457648
H            0.59429803794397        0.02582778860752       -1.18180415668057
H            5.96767597174962       -1.82504095083291       -2.55529333191086
H            3.96657142229874       -1.70893873998313       -3.99694160887459
H            1.90068519820466       -0.66715369542125       -3.13783996947372
H            6.96234383365034       -1.37575426119872       -0.43870472493245
H            8.38215877457605        0.81109510055851        3.43573486871492
H            6.33552620018344        1.91802043692549        4.27666570278258
H            4.20449618544393        1.61108316408386        3.11381916265068
H           -5.41932901214538        1.20662161261177        0.32278235102111
H           -5.68080965045327        0.92763533210602        2.75429048875216
H           -3.70403521752723        0.49957468557102        4.18286958823566
H            3.18344937664023       -0.31635243238390        3.56065294760577
H            1.81366221699921        0.07565904590736        6.64906722369020
H           -2.31567888892992        0.55769348890167       -1.51283254453643
H           -3.87680378502726        3.17176561476105       -1.16750642679393
H           -2.11961249526833        2.99301162623834       -1.00574876968725
H           -2.89986355125765        2.73508954162007       -2.57869171673489
H           -8.30331700942538       -3.00115703065215       -2.58100888123118
H           -9.11551625480453       -1.68621547158647       -4.49420971973839
H           -7.74568709138623        0.13240447337425       -5.42050587630862
H           -5.78910414343572        1.26928355397190       -5.26321229081975
H           -5.13983672344855       -3.36211618938141       -1.55148584284069
H           -6.76718825764561       -3.36731363857467       -0.85393093932147
H           -5.61036601770147       -2.08710186423607       -0.44606929276904
H            9.62191573145030       -1.73255398640817        0.07983212921616
77
 energy: -135.991790676086 gnorm: 0.008463291986 xtb: 6.6.1 (8d0f1dd)
C            1.53628471304778        1.96730445695745       -1.12711389038705
C            1.48691393592306        0.47897970228537       -0.74166345147772
C            2.71138654641166       -0.22886012440639       -1.23536331504114
C            3.81265409752170       -0.34361651367175       -0.39908810709424
C            4.98922303354301       -0.92328670973885       -0.88620894479721
C            5.04649312099802       -1.40342774663180       -2.18606321925132
C            3.92997821290564       -1.32609889933613       -3.00021391075378
C            2.77255857959567       -0.73723775149160       -2.52686721599790
N            6.09058365523733       -0.99956451309577       -0.05833454448334
C            6.16007755653838       -0.28845183110218        1.09864889866340
C            7.37677092395705       -0.09318766069163        1.78064415176553
C            7.39269853344895        0.69332805621954        2.94642342053972
C            6.25241758445220        1.30334538344670        3.39841854613031
C            5.04573929250391        1.11746046622248        2.72503768267067
C            4.97214950897610        0.29269219881129        1.61734662207260
N            3.75904601669985        0.05390018151388        0.95005295509670
C            2.51257715370998        0.14081126280978        1.53797117290609
C            1.38804557251041        0.32071912027235        0.74709107418516
C            0.10569601354132        0.37659202967364        1.33346849236409
N           -0.95160939476282        0.62035185746396        0.55172700633736
C           -2.15187531878339        0.68844974882086        1.11983885021786
C           -3.30837214182957        0.93936177789382        0.32474425344328
C           -4.53015052044499        1.01716291503130        0.93141768201484
C           -4.67742992837820        0.85677136881700        2.32447428621448
C           -3.59418252631605        0.62779900955065        3.11852232437319
C           -2.30720280194545        0.53777882124653        2.53974600064855
N           -1.24511521622739        0.32891846134470        3.32522515332023
C           -0.05958987349149        0.22084764497735        2.75228191290053
C            1.11506036095496       -0.03270190065578        3.53064251026950
C            2.34348281300411       -0.06590867093129        2.93502857997460
C            0.97633140100088       -0.29900374613896        4.98068185044854
O            0.08092415206476       -0.93780023873152        5.49062640072675
O            1.96633107822060        0.23099229903052        5.69083887919844
C           -3.16213558783013        1.13525792524950       -1.16482356161576
C           -2.99585446487740        2.61235258521731       -1.50747363399824
O           -4.34945700180121        0.66932175642838       -1.83434096822947
C           -4.37447370306602       -0.56869069862824       -2.30166111857710
O           -3.44048960408521       -1.34307516942342       -2.22326656336467
C           -5.69370829695511       -0.89211588942042       -2.91472907167155
C           -6.46711940143757       -1.93448545617889       -2.40090304449753
C           -7.69851490488302       -2.20530569351486       -2.98138139977695
C           -8.14952577013525       -1.46265002316785       -4.05874014657879
C           -7.37932974946330       -0.43800619860363       -4.57496140186597
C           -6.14525705088291       -0.14079379510437       -4.00496405632583
O           -5.34326954674929        0.83993333653202       -4.48557411692859
C           -5.97453245904537       -2.73530506101630       -1.23651312877360
C            8.67312041795775       -0.62933400382596        1.36515341513210
O            9.71552618996889       -0.39169323505389        1.95779003004790
O            8.69160146737685       -1.41944442662372        0.28225940980517
H            2.40213682270385        2.44913009421489       -0.67939493588610
H            1.59652834711762        2.06331413704945       -2.20717832645316
H            0.63299751364640        2.45687001655786       -0.77546080752018
H            0.58846405682184        0.04847891423048       -1.19496657330833
H            5.96484691865593       -1.83976370412690       -2.54408521242483
H            3.96907219846878       -1.71462648872731       -4.00427170656224
H            1.89834425089976       -0.66172932477314       -3.15317029406249
H            6.94266938992639       -1.39552940275984       -0.43136183126533
H            8.33980612720443        0.81350092795439        3.44713716031789
H            6.28143972215515        1.93092200329975        4.27323730725171
H            4.16383304177651        1.62691688304651        3.07879738296709
H           -5.40522001015935        1.19975625847399        0.32532569896945
H           -5.66501141198876        0.92187465155796        2.75279680031344
H           -3.67543597353124        0.49939929033746        4.18603226089535
H            3.20163742985065       -0.31617604675077        3.54006771463278
H            1.86383910615221        0.05761973358094        6.64896516459864
H           -2.30465748255105        0.55246082930545       -1.51978255861255
H           -3.86752550748556        3.16332642901007       -1.16564084620851
H           -2.10810902000796        2.99182734897972       -1.01223229785771
H           -2.89600328933286        2.73257819510022       -2.58200102201366
H           -8.30545806187019       -3.00266867268533       -2.58241403096978
H           -9.10893144276010       -1.68333930877241       -4.50008813278203