41
 energy: -61.057242007329 gnorm: 0.068918914902 xtb: 6.6.1 (8d0f1dd)
C           -2.72835400000000        4.43473200000000       -0.38550400000000
O           -1.71209500000000        3.44341200000000       -0.30364700000000
C           -2.18035500000000        2.18048000000000       -0.17509800000000
C           -1.32239800000000        1.10665200000000       -0.08255200000000
N           -2.10410700000000       -0.01921600000000        0.03918300000000
C           -3.43775600000000        0.30757000000000        0.01776100000000
C           -3.50671000000000        1.68404200000000       -0.10809600000000
C           -4.50016600000000       -0.64593600000000        0.12317800000000
C           -5.84833700000000       -0.42978500000000        0.34395100000000
C           -6.49833500000000       -1.68786500000000        0.36400400000000
C           -5.53548700000000       -2.64541300000000        0.14810100000000
N           -4.33116800000000       -2.00616100000000        0.00070000000000
C            0.11053800000000        1.07111500000000       -0.09631800000000
N            0.71158200000000       -0.06752900000000        0.00028800000000
C            2.17551900000000        0.06994500000000       -0.02911300000000
C            2.80013300000000       -1.32154200000000        0.09111700000000
C            4.30718000000000       -1.26399500000000        0.06850200000000
C            5.03020500000000       -1.11309700000000        1.25929700000000
C            6.42375400000000       -1.03947600000000        1.23551000000000
C            7.10621200000000       -1.11183500000000        0.02253600000000
C            6.39610200000000       -1.25674000000000       -1.16785900000000
C            5.00252200000000       -1.33055900000000       -1.14624600000000
H           -3.33351800000000        4.45709100000000        0.52730300000000
H           -2.23960100000000        5.40856300000000       -0.48643100000000
H           -3.35829100000000        4.28337600000000       -1.26879900000000
H           -1.70918700000000       -0.94318700000000        0.14550600000000
H           -4.42393700000000        2.25484200000000       -0.15206900000000
H           -6.31915400000000        0.53456100000000        0.48289000000000
H           -7.55379100000000       -1.87173600000000        0.51698100000000
H           -5.60158000000000       -3.72310400000000        0.08291900000000
H           -3.45560800000000       -2.47225600000000       -0.18869000000000
H            0.65463000000000        2.02887100000000       -0.19073200000000
H            2.51312200000000        0.70293700000000        0.80171800000000
H            2.49271200000000        0.54086100000000       -0.96855500000000
H            2.44392500000000       -1.96608400000000       -0.72303900000000
H            2.46383500000000       -1.80680900000000        1.01663700000000
H            4.51075900000000       -1.05293900000000        2.21314400000000
H            6.97689300000000       -0.92540100000000        2.16403400000000
H            8.19127400000000       -1.05493800000000        0.00492700000000
H            6.92770800000000       -1.31213500000000       -2.11414100000000
H            4.46133200000000       -1.44131300000000       -2.08329900000000
41
 energy: -61.062935162901 gnorm: 0.027408695466 xtb: 6.6.1 (8d0f1dd)
C           -2.73981893436439        4.45053059230512       -0.38665778469470
O           -1.73693683012116        3.45315468036186       -0.30284486016569
C           -2.19365405812493        2.18082133282307       -0.17243112929706
C           -1.32958063396906        1.09394734488981       -0.08002956783510
N           -2.10637259187704       -0.03293880051673        0.03435904258272
C           -3.42800355518333        0.30330538245934        0.01927370855201
C           -3.50688654635591        1.68528458277782       -0.10797014746892
C           -4.49534191495943       -0.64779442793933        0.12184091736072
C           -5.84394672985398       -0.42771827949203        0.34204946057074
C           -6.48587098835513       -1.67871199419348        0.36038735803312
C           -5.52324654084112       -2.63108383518256        0.14586242165955
N           -4.32402106917726       -2.00304556836959        0.00640223181986
C            0.09344928774982        1.06128900283200       -0.09394173764322
N            0.72890000741004       -0.04859641337857       -0.00032596461727
C            2.18427108004743        0.05018962890979       -0.02757530609496
C            2.81143175032117       -1.33851895440400        0.09240753329850
C            4.31384560520905       -1.26680914067341        0.06864456824888
C            5.03448561657559       -1.11319617186549        1.24882156911002
C            6.41861161727712       -1.03779378404083        1.22713460901582
C            7.09948227060268       -1.10994816477875        0.02244291006746
C            6.39118001313749       -1.25344592654493       -1.15982952519553
C            5.00708184839674       -1.32864987753962       -1.13607238191263
H           -3.34843463702964        4.45952652683961        0.52112541764763
H           -2.22306535409441        5.40621932951124       -0.48657177493464
H           -3.37250996195170        4.28610741211544       -1.26260954672787
H           -1.70958581349019       -0.95213995475183        0.13880351804154
H           -4.41680855569054        2.25226835259135       -0.15513426220718
H           -6.31329338972711        0.52781833526859        0.48412395304141
H           -7.53395856715912       -1.85928599871038        0.51395396478978
H           -5.59546222851007       -3.70035474101178        0.08269832737901
H           -3.45205573653261       -2.46949092513340       -0.18134084067031
H            0.60523865657530        2.02717992082973       -0.18895799959342
H            2.52637942080869        0.68580335219056        0.79839495103858
H            2.50471764676601        0.52401196593749       -0.96355361182802
H            2.44909689210976       -1.95759570588097       -0.73325867173069
H            2.46928488836581       -1.79657062994009        1.02482442651941
H            4.51233834755233       -1.05857703574415        2.19511833378345
H            6.96751780712774       -0.92591627393014        2.15243784954037
H            8.17950314508562       -1.05528671940789        0.00510461601228
H            6.91864129231554       -1.31041003173923       -2.10245002886208
H            4.46339944393424       -1.44357938747364       -2.06465754663360
41
 energy: -61.063902778683 gnorm: 0.008235748732 xtb: 6.6.1 (8d0f1dd)
C           -2.74907426256582        4.45468576520395       -0.38610371031314
O           -1.75002425918487        3.45482749472955       -0.30127145174931
C           -2.19757567365531        2.17637302200789       -0.17048912381213
C           -1.32898370786723        1.08287110356895       -0.07964133968057
N           -2.10705211823063       -0.04189840364349        0.03034782048487
C           -3.41951039376687        0.29833956093023        0.01987808746336
C           -3.50377802963356        1.68366153481489       -0.10595836846409
C           -4.49096113209632       -0.64849313593206        0.12076410069225
C           -5.83995360060332       -0.42418290887688        0.33889116363828
C           -6.47814864279509       -1.67225025615000        0.35735778833545
C           -5.51363592830594       -2.62358098325342        0.14761085561772
N           -4.31841445559983       -2.00071018620300        0.01080023162431
C            0.08838985621217        1.05369726841615       -0.09352413009799
N            0.74902017134672       -0.03712943067122       -0.00107671770789
C            2.19439854139206        0.04831276413351       -0.02787623618700
C            2.81092670714906       -1.34768808427268        0.09314527775213
C            4.31042514274334       -1.27218571562442        0.06910941792329
C            5.03135622525891       -1.11685419532541        1.24564328579867
C            6.41227322813421       -1.03642469927045        1.22459318838961
C            7.09359964013237       -1.10667741009892        0.02222948842969
C            6.38496825498202       -1.25153850398463       -1.15745112685391
C            5.00410730851913       -1.33161152145302       -1.13230460797307
H           -3.36186964412460        4.46590847095501        0.51822521383410
H           -2.21573685159332        5.39779959424583       -0.48523489370805
H           -3.38484009252100        4.29234056337252       -1.25957514646574
H           -1.70701731684527       -0.95808500264777        0.13463655146800
H           -4.41147498335153        2.24803290377891       -0.15302504295441
H           -6.30712465647886        0.52874184571118        0.48011745124680
H           -7.52384537093054       -1.84989269294757        0.50836902459286
H           -5.59269592619264       -3.68959277926164        0.08641181958694
H           -3.44765293397319       -2.46692082004667       -0.17666138569950
H            0.57449038844784        2.03285754412803       -0.18800521325286
H            2.54780481988063        0.68251555276017        0.79637612103805
H            2.52443807706178        0.51955005572752       -0.96348146451944
H            2.44913564502785       -1.95703493228513       -0.73600503033803
H            2.46930282321349       -1.79517227621423        1.02736300255797
H            4.50635774619665       -1.06422951131828        2.18816547393457
H            6.95892406929129       -0.92281584625632        2.14870092318317
H            8.17150817922719       -1.05142894114026        0.00489184808427
H            6.91023522784413       -1.30641045124653       -2.09914592643130
H            4.45770992825487       -1.44770735636030       -2.05679821946796
41
 energy: -61.064023252052 gnorm: 0.003217895794 xtb: 6.6.1 (8d0f1dd)
C           -2.75263761134699        4.45440841357231       -0.38490461921150
O           -1.75318379276556        3.45462019646830       -0.29943838526442
C           -2.19689693350728        2.17433028172832       -0.16935859944612
C           -1.32618011690626        1.08047436399939       -0.08042759404052
N           -2.10580285289907       -0.04372685463978        0.02820603586411
C           -3.41611383390492        0.29552057435730        0.02005903490786
C           -3.50193379920726        1.68185094676950       -0.10415504838616
C           -4.48893178998527       -0.64904522841910        0.12035165244541
C           -5.83825169466692       -0.42276386706852        0.33528122849643
C           -6.47664290440730       -1.67071035777915        0.35541236415091
C           -5.51132034771746       -2.62316888734032        0.14937158786599
N           -4.31643601437779       -2.00105401829090        0.01435327492689
C            0.09024815464872        1.05522589481598       -0.09425972781573
N            0.75855784346678       -0.02985860430869       -0.00268049226669
C            2.19986223103022        0.05086808626298       -0.02889746426664
C            2.80836542130411       -1.35033363084978        0.09324799751725
C            4.30732093088137       -1.27907400392804        0.06969507965274
C            5.02831058196915       -1.12125219289123        1.24645561778557
C            6.40905682872323       -1.03597196594291        1.22505268558389
C            7.09062860310125       -1.10395987917241        0.02206822530469
C            6.38184839285495       -1.25103642158866       -1.15788800523273
C            5.00116648083823       -1.33598745460430       -1.13233528502350
H           -3.36702046395335        4.46806845476414        0.51865093431026
H           -2.21629854284853        5.39490505091171       -0.48383888107170
H           -3.38910655703411        4.29404829780906       -1.25860910750233
H           -1.70233817106823       -0.95877424649694        0.13259204229418
H           -4.41073927137486        2.24464232278008       -0.14977715132050
H           -6.30398776955787        0.53139389894774        0.47367813118607
H           -7.52293214363942       -1.84687007767119        0.50464084638269
H           -5.59454364236939       -3.68928876929494        0.09061749821105
H           -3.44517048528885       -2.46716602149638       -0.17190601423786
H            0.56631561283554        2.04117867110855       -0.18892146774986
H            2.56229279537064        0.68246995338751        0.79472018230619
H            2.53831417827172        0.51865728947941       -0.96433004318021
H            2.44441652678501       -1.95720657896022       -0.73595235807770
H            2.46440422311922       -1.79483729963611        1.02732437582847
H            4.50184776295444       -1.06981816918904        2.18847505548195
H            6.95519039398727       -0.91974949649773        2.14922816307459
H            8.16826102973776       -1.04458874460556        0.00440706306980
H            6.90666277751192       -1.30328041321747       -2.10007063016277
H            4.45339996943517       -1.45314051327295       -2.05613920239006
41
 energy: -61.064069682621 gnorm: 0.001773896121 xtb: 6.6.1 (8d0f1dd)
C           -2.75527157259937        4.45341715040152       -0.38300657454664
O           -1.75444360006860        3.45480398178992       -0.29691465359823
C           -2.19517070582618        2.17347296486965       -0.16807243954670
C           -1.32259715174595        1.08077269965648       -0.08192230801681
N           -2.10265348273529       -0.04397284454407        0.02592222873362
C           -3.41278251600283        0.29305862934836        0.02026017777053
C           -3.49981751083458        1.67994790244378       -0.10190837740275
C           -4.48644278664283       -0.64999319846767        0.12011829772361
C           -5.83624932158450       -0.42199958434354        0.33045009979738
C           -6.47585367024989       -1.66978062147488        0.35248590275206
C           -5.51023363543463       -2.62399211500805        0.15230272895356
N           -4.31463445569447       -2.00261320697114        0.01891578455486
C            0.09402706839538        1.06006930600449       -0.09614556294393
N            0.76576311862573       -0.02220659355732       -0.00524854813446
C            2.20447392984178        0.05378215227969       -0.03057642044583
C            2.80525779111001       -1.35216167328199        0.09315357044886
C            4.30405940965345       -1.28587557153772        0.07024073497108
C            5.02482053058446       -1.12650498317170        1.24759739110188
C            6.40554049404120       -1.03617317493066        1.22569173726449
C            7.08698933740047       -1.10054294021667        0.02191679850977
C            6.37851035615835       -1.25120703074055       -1.15829926684508
C            4.99786210783585       -1.34127627782090       -1.13254472214346
H           -3.37042127451579        4.46791516774336        0.52031158381516
H           -2.21961056295501        5.39411633399169       -0.48194507295131
H           -3.39156433391791        4.29327807719548       -1.25722261248595
H           -1.69503199991529       -0.95777151173589        0.13001492386657
H           -4.41025360392720        2.24097473464446       -0.14527764538228
H           -6.30075859825289        0.53394082238922        0.46412725621854
H           -7.52320038913288       -1.84438975796450        0.49909173888645
H           -5.59722600579085       -3.69046617623743        0.09730887299254
H           -3.44269163965076       -2.46899436165375       -0.16495825646505
H            0.56372560922731        2.05041057602578       -0.19008119469605
H            2.57385954329920        0.68340509199991        0.79230842935117
H            2.54992885707914        0.51832518957113       -0.96582663947854
H            2.43818915709062       -1.95780995410784       -0.73555186605536
H            2.45786040177545       -1.79441229227286        1.02704091989249
H            4.49745695375345       -1.07701986722727        2.18962644706119
H            6.95149293229383       -0.91691232093850        2.14992125347193
H            8.16448941868937       -1.03500164017401        0.00378314464797
H            6.90326706920910       -1.30033873819977       -2.10100973607013
H            4.44933673141354       -1.46027534377623       -2.05607912557719
41
 energy: -61.064091327667 gnorm: 0.002016869791 xtb: 6.6.1 (8d0f1dd)
C           -2.75801206049513        4.45233646664277       -0.38013484750976
O           -1.75487645054189        3.45616392365290       -0.29347166824961
C           -2.19316756997293        2.17413544758473       -0.16648367687397
C           -1.31896548940931        1.08330222317264       -0.08375462695767
N           -2.09743979913652       -0.04319618447465        0.02323010023421
C           -3.40860483307333        0.29122655720573        0.02036982174977
C           -3.49730735620641        1.67830937860705       -0.09927285462076
C           -4.48254793215101       -0.65128513487002        0.11984996635066
C           -5.83311206148523       -0.42140321051645        0.32346716451822
C           -6.47429848634042       -1.66856543446662        0.34836365219834
C           -5.50882844827260       -2.62482475513322        0.15636182479665
N           -4.31176560400402       -2.00498796838322        0.02535431207799
C            0.09832037838316        1.06669822160926       -0.09850555204230
N            0.76997267560584       -0.01533004511701       -0.00886848074993
C            2.20769932826410        0.05564120879997       -0.03312846938460
C            2.80182607200977       -1.35373133840473        0.09283176278623
C            4.30057370653117       -1.29210181121490        0.07066468633319
C            5.02081285087307       -1.13202544974313        1.24846135974655
C            6.40130449414226       -1.03636993050931        1.22611558991581
C            7.08240275375781       -1.09636990124478        0.02180719435826
C            6.37459997004668       -1.25129072081095       -1.15837868810432
C            4.99419113051016       -1.34676939046657       -1.13248398255219
H           -3.37330979266211        4.46572894795127        0.52318141902028
H           -2.22558158902479        5.39514568280711       -0.47924046752276
H           -3.39348069151720        4.29037837524533       -1.25471899663001
H           -1.68536387910679       -0.95543746287388        0.12613154752581
H           -4.40932888478240        2.23739370783776       -0.13967521998372
H           -6.29686882419777        0.53617593989099        0.45029296020449
H           -7.52271077967096       -1.84146078651934        0.49128798501059
H           -5.59859998710534       -3.69149817849268        0.10656898010655
H           -3.43916956530338       -2.47225231641935       -0.15388163701127
H            0.56521644626758        2.05854423171596       -0.19166913249824
H            2.58094688472396        0.68430534426457        0.78897500103151
H            2.55759694005016        0.51721597562224       -0.96842506265056
H            2.43172118861354       -1.95887571132395       -0.73516013688055
H            2.45092397167092       -1.79349830851138        1.02685051854973
H            4.49316485485282       -1.08532375853717        2.19065354266462
H            6.94722097591097       -0.91518032020935        2.15031123842284
H            8.15966034055230       -1.02401113557406        0.00321014604848
H            6.89956299203531       -1.29840635407485       -2.10126776345039
H            4.44562412965789       -1.46850702471875       -2.05582050997820
41
 energy: -61.064104576207 gnorm: 0.001312626672 xtb: 6.6.1 (8d0f1dd)
C           -2.76003887723394        4.45216375202543       -0.37819214106812
O           -1.75521708883373        3.45785840634785       -0.29125735207809
C           -2.19239898825883        2.17542100225746       -0.16543341738955
C           -1.31746236351693        1.08544914135621       -0.08479114063921
N           -2.09407120325882       -0.04233122329394        0.02163078517947
C           -3.40592195689045        0.29091892646888        0.02029640952271
C           -3.49598670113302        1.67793804427852       -0.09769861733655
C           -4.47958389301496       -0.65192964033150        0.11956822152155
C           -5.83064186633879       -0.42095854983406        0.31881085602472
C           -6.47253041293075       -1.66758718962979        0.34545873032388
C           -5.50708385443463       -2.62482615359805        0.15909490646010
N           -4.30921768138923       -2.00613042822755        0.02958473425598
C            0.10006233318115        1.06966950800036       -0.10005770253191
N            0.77009536493978       -0.01347827053124       -0.01115760499297
C            2.20819468172422        0.05531172117228       -0.03494710587245
C            2.79998510486226       -1.35471504510573        0.09267980332291
C            4.29870223991218       -1.29433073021095        0.07081260268636
C            5.01866661082340       -1.13432634978387        1.24862877726933
C            6.39894063745234       -1.03657933273715        1.22619640748208
C            7.07985601214536       -1.09457233794836        0.02181989806842
C            6.37241932125064       -1.25137988290033       -1.15820541919926
C            4.99223752942366       -1.34899612771902       -1.13223744881081
H           -3.37525756597557        4.46421029293916        0.52512852932405
H           -2.22992503648384        5.39644305775553       -0.47749924974975
H           -3.39495194955060        4.28838636190088       -1.25276282220591
H           -1.68007373232873       -0.95376477776386        0.12304458492888
H           -4.40859693943818        2.23606953368059       -0.13634818055135
H           -6.29441944794290        0.53710384020251        0.44135987156804
H           -7.52136733379538       -1.83964254624656        0.48587081887844
H           -5.59720267544035       -3.69150687380121        0.11248197141210
H           -3.43630900440848       -2.47418125643842       -0.14578184246175
H            0.56765230150482        2.06081174857738       -0.19207616355327
H            2.58148761592361        0.68440973600502        0.78662193258253
H            2.55852112430482        0.51539715296792       -0.97063751147821
H            2.42908949428412       -1.96006288189016       -0.73486396080746
H            2.44801298207322       -1.79289184021592        1.02709833326717
H            4.49118392628538       -1.08907860202105        2.19089543276196
H            6.94482688788189       -0.91501629595858        2.15030773416860
H            8.15687066522710       -1.01917030862783        0.00303588689894
H            6.89749223353129       -1.29798782236037       -2.10100663413210
H            4.44396350586684       -1.47211875876054       -2.05547391304949
41
 energy: -61.064126800011 gnorm: 0.001660510059 xtb: 6.6.1 (8d0f1dd)
C           -2.76737923336041        4.45269306955510       -0.37256715623638
O           -1.75737202770719        3.46392794770577       -0.28447687437397
C           -2.19079980703415        2.17988221455491       -0.16206695038161
C           -1.31349458274004        1.09197782734002       -0.08743391680656
N           -2.08491317894522       -0.03917110178026        0.01678293068951
C           -3.39813311453279        0.29084732115619        0.02002078812305
C           -3.49256003560523        1.67773207730124       -0.09271689596946
C           -4.47051853595330       -0.65335751402407        0.11864867576202
C           -5.82308034677405       -0.41949423372909        0.30476253209991
C           -6.46627782527494       -1.66491325212402        0.33686435138817
C           -5.50031585954618       -2.62447755419106        0.16700389707266
N           -4.30063563188747       -2.00848952975918        0.04192961817946
C            0.10426474088411        1.07650688926591       -0.10375448630714
N            0.76923786098630       -0.01033455931456       -0.01801719583433
C            2.20858504286422        0.05286673767516       -0.04076156091642
C            2.79472662865226       -1.35831491489424        0.09267969756132
C            4.29340287334784       -1.30043290437151        0.07145080849246
C            5.01286715351395       -1.14024523421860        1.24914250396787
C            6.39259579781961       -1.03731413482129        1.22644678651781
C            7.07309986967074       -1.09060105920739        0.02188070704929
C            6.36630830970598       -1.25150657035986       -1.15772892867357
C            4.98670814155223       -1.35443922385671       -1.13139553099463
H           -3.38268756108063        4.46132237808316        0.53058202247897
H           -2.24334067957889        5.40053575592306       -0.47268914355878
H           -3.40083758102599        4.28358382434664       -1.24701200026972
H           -1.66614613105313       -0.94870725970730        0.11260063394093
H           -4.40670590468811        2.23330645847314       -0.12606617524846
H           -6.28739339273176        0.53962737196985        0.41487703087054
H           -7.51623576377879       -1.83493412691849        0.46975900745891
H           -5.59020644569826       -3.69129767610467        0.12923567885018
H           -3.42658338697218       -2.47878507176494       -0.12094160224887
H            0.57518899109834        2.06522751394895       -0.19289181752344
H            2.58177711043985        0.68420190703328        0.77872968013288
H            2.55941594514874        0.50807747660847       -0.97817416714677
H            2.42251088144222       -1.96508371030947       -0.73315809989315
H            2.44073265201095       -1.79144012070211        1.02865093452724
H            4.48585401959111       -1.09815175347784        2.19158126659661
H            6.93837380534066       -0.91500840596402        2.15033963706850
H            8.14947198874688       -1.00854739094964        0.00262211687270
H            6.89145444325395       -1.29684420829044       -2.10037229052830
H            4.43904276989870       -1.48042626010017       -2.05436751278949
41
 energy: -61.064120631128 gnorm: 0.003882359102 xtb: 6.6.1 (8d0f1dd)
C           -2.77477407867568        4.45323706434345       -0.36689717003058
O           -1.75954969388398        3.47004347207723       -0.27764649948227
C           -2.18919351449525        2.18437600084131       -0.15867590930410
C           -1.30950180892442        1.09855040556729       -0.09009298900095
N           -2.07570796242318       -0.03598199026824        0.01190683527715
C           -3.39030037456183        0.29078185432979        0.01974135239091
C           -3.48911562417964        1.67753287209911       -0.08770543016124
C           -4.46139838047425       -0.65478931427857        0.11771991240005
C           -5.81547650404811       -0.41802418721309        0.29060612595466
C           -6.45998080171225       -1.66223316640962        0.32820467755519
C           -5.49348830453300       -2.62413147844217        0.17497504414276
N           -4.29198915731630       -2.01085522382338        0.05436518588073
C            0.10849101641862        1.08337681038701       -0.10747537456463
N            0.76837541362686       -0.00717967031380       -0.02492598171174
C            2.20897359325385        0.05039996820500       -0.04662404447069
C            2.78943369064901       -1.36194439470629        0.09268050458375
C            4.28806927427489       -1.30657520207374        0.07209313265344
C            5.00703164640997       -1.14619737480099        1.24966066262822
C            6.38621319575258       -1.03805683739911        1.22670052660509
C            7.06630546711692       -1.08661861119245        0.02194312060272
C            6.36016094330996       -1.25163717908477       -1.15725075312634
C            4.98114437185189       -1.35991250035883       -1.13055046430524
H           -3.39017323321513        4.45843503008099        0.53608004360510
H           -2.25684092362842        5.40465835854808       -0.46783850218362
H           -3.40677247720816        4.27877139710162       -1.24121529372399
H           -1.65214563793920       -0.94361300868184        0.10208597774440
H           -4.40480700866963        2.23053551272979       -0.11572279195880
H           -6.28033593254354        0.54216242052691        0.38818971156544
H           -7.51106786674823       -1.83021333419766        0.45352507484318
H           -5.58313910296794       -3.69109494512217        0.14611997977824
H           -3.41677920778046       -2.48340584855883       -0.09590759939575
H            0.58277357912858        2.06966657269576       -0.19370419419997
H            2.58207801355971        0.68399424838702        0.77076690578117
H            2.56031666069298        0.50069234401281       -0.98577653509257
H            2.41589326164538       -1.97015394283741       -0.73143364848821
H            2.43340970282444       -1.78998190886934        1.03021712520340
H            4.48048800654703       -1.10726871178397        2.19227214306407
H            6.93188115345107       -0.91499860932541        2.15037465616171
H            8.14203237015844       -0.99788438207399        0.00220818497798
H            6.88537971433428       -1.29569108780023       -2.09973721465203
H            4.43408852092213       -1.48877242231738       -2.05325748754673
41
 energy: -61.064135283600 gnorm: 0.002340058187 xtb: 6.6.1 (8d0f1dd)
C           -2.77348054963537        4.45395833574375       -0.36776467881855
O           -1.75974762749628        3.46902681049773       -0.27902576934715
C           -2.18990960485659        2.18352158883834       -0.15936424689807
C           -1.31064698192503        1.09693732169678       -0.08933963291618
N           -2.07900195953959       -0.03620065560713        0.01343720847069
C           -3.39278805515553        0.29134288303028        0.01965892578264